#------------------------------------------------------------------------------
#$Date: 2018-09-27 07:13:35 +0300 (Thu, 27 Sep 2018) $
#$Revision: 211196 $
#$URL: file:///home/coder/svn-repositories/cod/cif/1/53/27/1532765.cif $
#------------------------------------------------------------------------------
#
# This file is available in the Crystallography Open Database (COD),
# http://www.crystallography.net/
#
# All data on this site have been placed in the public domain by the
# contributors.
#
data_1532765
loop_
_publ_author_name
'Novoselova, T.'
'Malinov, S.'
'Sha, W.'
'Zhecheva, A.'
_publ_section_title
;
 High-temperature synchrotron X-ray diffraction study of phases in a gamma
 Ti Al alloy
;
_journal_name_full               'Materials Science and Engineering A'
_journal_page_first              103
_journal_page_last               112
_journal_volume                  371
_journal_year                    2004
_chemical_formula_sum            Ti
_space_group_IT_number           194
_symmetry_space_group_name_Hall  '-P 6c 2c'
_symmetry_space_group_name_H-M   'P 63/m m c'
_cell_angle_alpha                90
_cell_angle_beta                 90
_cell_angle_gamma                120
_cell_formula_units_Z            2
_cell_length_a                   2.9064
_cell_length_b                   2.9064
_cell_length_c                   4.6667
_cell_volume                     34.139
_citation_journal_id_ASTM        MSAPE3
_cod_data_source_file            Novoselova_MSAPE3_2004_1952.cif
_cod_data_source_block           Ti1
_cod_original_cell_volume        34.13904
_cod_original_formula_sum        Ti1
_cod_database_code               1532765
loop_
_symmetry_equiv_pos_as_xyz
x,y,z
x-y,x,z+1/2
-y,x-y,z
-x,-y,z+1/2
-x+y,-x,z
y,-x+y,z+1/2
-y,-x,-z+1/2
x-y,-y,-z
x,x-y,-z+1/2
y,x,-z
-x+y,y,-z+1/2
-x,-x+y,-z
-x,-y,-z
-x+y,-x,-z-1/2
y,-x+y,-z
x,y,-z-1/2
x-y,x,-z
-y,x-y,-z-1/2
y,x,z-1/2
-x+y,y,z
-x,-x+y,z-1/2
-y,-x,z
x-y,-y,z-1/2
x,x-y,z
loop_
_atom_site_label
_atom_site_type_symbol
_atom_site_fract_x
_atom_site_fract_y
_atom_site_fract_z
_atom_site_occupancy
_atom_site_U_iso_or_equiv
Ti1 Ti 0.3333 0.6667 0.25 1 0.0
