#------------------------------------------------------------------------------
#$Date: 2022-11-23 16:41:51 +0200 (Wed, 23 Nov 2022) $
#$Revision: 279511 $
#$URL: file:///home/coder/svn-repositories/cod/cif/1/53/44/1534488.cif $
#------------------------------------------------------------------------------
#
# This file is available in the Crystallography Open Database (COD),
# http://www.crystallography.net/
#
# All data on this site have been placed in the public domain by the
# contributors.
#
data_1534488
loop_
_publ_author_name
'Lee, J.A.'
'Raynor, G.V.'
_publ_section_title
;
 The lattice spacings of binary tin-rich alloys
;
_journal_name_full               'Proceedings of the Physical Society, London'
_journal_page_first              737
_journal_page_last               747
_journal_volume                  67
_journal_year                    1954
_journal_paper_doi               10.1088/0370-1301/67/10/301
_chemical_formula_sum            Sn
_space_group_IT_number           141
_symmetry_space_group_name_Hall  'I 4bw 2bw -1bw'
_symmetry_space_group_name_H-M   'I 41/a m d :1'
_cell_angle_alpha                90
_cell_angle_beta                 90
_cell_angle_gamma                90
_cell_formula_units_Z            4
_cell_length_a                   5.8317
_cell_length_b                   5.8317
_cell_length_c                   3.1813
_cell_volume                     108.192
_citation_journal_id_ASTM        PPSOAU
_cod_data_source_file            Lee_PPSOAU_1954_1619.cif
_cod_data_source_block           Sn1
_cod_original_cell_volume        108.1919
_cod_original_sg_symbol_Hall     '-I 4bd 2 (x+1/2,y+1/4,z+1/8)'
_cod_original_formula_sum        Sn1
_cod_database_code               1534488
loop_
_symmetry_equiv_pos_as_xyz
x,y,z
-y,x+1/2,z+1/4
-x+1/2,-y+1/2,z+1/2
y+1/2,-x,z+3/4
x,-y+1/2,-z+1/4
y+1/2,x+1/2,-z+1/2
-x+1/2,y,-z+3/4
-y,-x,-z
-x,-y+1/2,-z+1/4
y,-x,-z
x-1/2,y,-z-1/4
-y-1/2,x+1/2,-z-1/2
-x,y,z
-y-1/2,-x,z-1/4
x-1/2,-y+1/2,z-1/2
y,x+1/2,z+1/4
x+1/2,y+1/2,z+1/2
-y+1/2,x+1,z+3/4
-x+1,-y+1,z+1
y+1,-x+1/2,z+5/4
x+1/2,-y+1,-z+3/4
y+1,x+1,-z+1
-x+1,y+1/2,-z+5/4
-y+1/2,-x+1/2,-z+1/2
-x+1/2,-y+1,-z+3/4
y+1/2,-x+1/2,-z+1/2
x,y+1/2,-z+1/4
-y,x+1,-z
-x+1/2,y+1/2,z+1/2
-y,-x+1/2,z+1/4
x,-y+1,z
y+1/2,x+1,z+3/4
loop_
_atom_site_label
_atom_site_type_symbol
_atom_site_fract_x
_atom_site_fract_y
_atom_site_fract_z
_atom_site_occupancy
_atom_site_U_iso_or_equiv
Sn1 Sn 0 0 0 1 0.0
